 BEGIN_INFO
  # usage xcrysden --bxsf fermiup.bxsf
  # http://www.xcrysden.org/doc/XSF.html#2l.16
  Fermi Energy:  0.05880
 END_INFO
 BEGIN_BLOCK_BANDGRID_3D
   this_is_for_xcrysden
   BEGIN_BANDGRID_3D_simple_test
          24
          21      21      21
      0.00000   0.00000   0.00000
      1.00000   0.00000   0.00000
      0.00000   1.00000   0.00000
      0.00000   0.00000   0.59577
  BAND:       11
     -0.36929  -0.36799  -0.36414  -0.35791  -0.34953  -0.33934  -0.32775  -0.31516  -0.30206  -0.28896
  -0.27846  -0.28896  -0.30206  -0.31516  -0.32775  -0.33934  -0.34953  -0.35791  -0.36414  -0.36799
  -0.36929  -0.36779  -0.36651  -0.36272  -0.35658  -0.34834  -0.33832  -0.32690  -0.31452  -0.30165
  -0.28878  -0.27857  -0.28878  -0.30165  -0.31452  -0.32690  -0.33832  -0.34834  -0.35658  -0.36272
  -0.36651  -0.36779  -0.36333  -0.36212  -0.35853  -0.35270  -0.34486  -0.33536  -0.32456  -0.31286
  -0.30071  -0.28860  -0.27925  -0.28860  -0.30071  -0.31286  -0.32456  -0.33536  -0.34486  -0.35270
  -0.35853  -0.36212  -0.36333  -0.35604  -0.35495  -0.35172  -0.34648  -0.33947  -0.33098  -0.32136
  -0.31099  -0.30026  -0.28959  -0.28153  -0.28959  -0.30026  -0.31099  -0.32136  -0.33098  -0.33947
  -0.34648  -0.35172  -0.35495  -0.35604  -0.34618  -0.34529  -0.34270  -0.33853  -0.33297  -0.32628
  -0.31874  -0.31065  -0.30228  -0.29386  -0.28729  -0.29386  -0.30228  -0.31065  -0.31874  -0.32628
  -0.33297  -0.33853  -0.34270  -0.34529  -0.34618  -0.33429  -0.33381  -0.33244  -0.33019  -0.32717
  -0.32347  -0.31918  -0.31438  -0.30910  -0.30341  -0.29812  -0.30341  -0.30910  -0.31438  -0.31918
  -0.32347  -0.32717  -0.33019  -0.33244  -0.33381  -0.33429  -0.32187  -0.32229  -0.32332  -0.32447
  -0.32531  -0.32550  -0.32488  -0.32338  -0.32095  -0.31762  -0.31367  -0.31762  -0.32095  -0.32338
  -0.32488  -0.32550  -0.32531  -0.32447  -0.32332  -0.32229  -0.32187  -0.31312  -0.31569  -0.32053
  -0.32534  -0.32943  -0.33252  -0.33445  -0.33519  -0.33471  -0.33306  -0.33037  -0.33306  -0.33471
  -0.33519  -0.33445  -0.33252  -0.32943  -0.32534  -0.32053  -0.31569  -0.31312  -0.31572  -0.31973
  -0.32526  -0.33089  -0.33604  -0.34038  -0.34365  -0.34575  -0.34660  -0.34622  -0.34476  -0.34622
  -0.34660  -0.34575  -0.34365  -0.34038  -0.33604  -0.33089  -0.32526  -0.31973  -0.31572  -0.32372
  -0.32558  -0.32973  -0.33481  -0.34003  -0.34485  -0.34890  -0.35196  -0.35388  -0.35461  -0.35428
  -0.35461  -0.35388  -0.35196  -0.34890  -0.34485  -0.34003  -0.33481  -0.32973  -0.32558  -0.32372
  -0.32506  -0.32617  -0.32926  -0.33367  -0.33864  -0.34376  -0.34831  -0.35215  -0.35507  -0.35684
  -0.35744  -0.35684  -0.35507  -0.35215  -0.34831  -0.34376  -0.33864  -0.33367  -0.32926  -0.32617
  -0.32506  -0.32372  -0.32558  -0.32973  -0.33481  -0.34003  -0.34485  -0.34890  -0.35196  -0.35388
  -0.35461  -0.35428  -0.35461  -0.35388  -0.35196  -0.34890  -0.34485  -0.34003  -0.33481  -0.32973
  -0.32558  -0.32372  -0.31572  -0.31973  -0.32526  -0.33089  -0.33604  -0.34038  -0.34365  -0.34575
  -0.34660  -0.34622  -0.34476  -0.34622  -0.34660  -0.34575  -0.34365  -0.34038  -0.33604  -0.33089
  -0.32526  -0.31973  -0.31572  -0.31312  -0.31569  -0.32053  -0.32534  -0.32943  -0.33252  -0.33445
  -0.33519  -0.33471  -0.33306  -0.33037  -0.33306  -0.33471  -0.33519  -0.33445  -0.33252  -0.32943
  -0.32534  -0.32053  -0.31569  -0.31312  -0.32187  -0.32229  -0.32332  -0.32447  -0.32531  -0.32550
  -0.32488  -0.32338  -0.32095  -0.31762  -0.31367  -0.31762  -0.32095  -0.32338  -0.32488  -0.32550
  -0.32531  -0.32447  -0.32332  -0.32229  -0.32187  -0.33429  -0.33381  -0.33244  -0.33019  -0.32717
  -0.32347  -0.31918  -0.31438  -0.30910  -0.30341  -0.29812  -0.30341  -0.30910  -0.31438  -0.31918
  -0.32347  -0.32717  -0.33019  -0.33244  -0.33381  -0.33429  -0.34618  -0.34529  -0.34270  -0.33853
  -0.33297  -0.32628  -0.31874  -0.31065  -0.30228  -0.29386  -0.28729  -0.29386  -0.30228  -0.31065
  -0.31874  -0.32628  -0.33297  -0.33853  -0.34270  -0.34529  -0.34618  -0.35604  -0.35495  -0.35172
  -0.34648  -0.33947  -0.33098  -0.32136  -0.31099  -0.30026  -0.28959  -0.28153  -0.28959  -0.30026
  -0.31099  -0.32136  -0.33098  -0.33947  -0.34648  -0.35172  -0.35495  -0.35604  -0.36333  -0.36212
  -0.35853  -0.35270  -0.34486  -0.33536  -0.32456  -0.31286  -0.30071  -0.28860  -0.27925  -0.28860
  -0.30071  -0.31286  -0.32456  -0.33536  -0.34486  -0.35270  -0.35853  -0.36212  -0.36333  -0.36779
  -0.36651  -0.36272  -0.35658  -0.34834  -0.33832  -0.32690  -0.31452  -0.30165  -0.28878  -0.27857
  -0.28878  -0.30165  -0.31452  -0.32690  -0.33832  -0.34834  -0.35658  -0.36272  -0.36651  -0.36779
  -0.36929  -0.36799  -0.36414  -0.35791  -0.34953  -0.33934  -0.32775  -0.31516  -0.30206  -0.28896
  -0.27846  -0.28896  -0.30206  -0.31516  -0.32775  -0.33934  -0.34953  -0.35791  -0.36414  -0.36799
  -0.36929  -0.36779  -0.36651  -0.36272  -0.35658  -0.34834  -0.33832  -0.32690  -0.31452  -0.30165
  -0.28878  -0.27857  -0.28878  -0.30165  -0.31452  -0.32690  -0.33832  -0.34834  -0.35658  -0.36272
  -0.36651  -0.36779  -0.36628  -0.36502  -0.36130  -0.35525  -0.34713  -0.33726  -0.32604  -0.31386
  -0.30120  -0.28856  -0.27862  -0.28856  -0.30120  -0.31386  -0.32604  -0.33726  -0.34713  -0.35525
  -0.36130  -0.36502  -0.36628  -0.36180  -0.36061  -0.35707  -0.35133  -0.34363  -0.33427  -0.32364
  -0.31212  -0.30016  -0.28824  -0.27909  -0.28824  -0.30016  -0.31212  -0.32364  -0.33427  -0.34363
  -0.35133  -0.35707  -0.36061  -0.36180  -0.35448  -0.35340  -0.35022  -0.34508  -0.33817  -0.32981
  -0.32034  -0.31011  -0.29952  -0.28900  -0.28105  -0.28900  -0.29952  -0.31011  -0.32034  -0.32981
  -0.33817  -0.34508  -0.35022  -0.35340  -0.35448  -0.34457  -0.34372  -0.34118  -0.33707  -0.33159
  -0.32500  -0.31756  -0.30958  -0.30131  -0.29298  -0.28641  -0.29298  -0.30131  -0.30958  -0.31756
  -0.32500  -0.33159  -0.33707  -0.34118  -0.34372  -0.34457  -0.33271  -0.33224  -0.33088  -0.32868
  -0.32572  -0.32209  -0.31787  -0.31313  -0.30792  -0.30230  -0.29693  -0.30230  -0.30792  -0.31313
  -0.31787  -0.32209  -0.32572  -0.32868  -0.33088  -0.33224  -0.33271  -0.32034  -0.32077  -0.32183
  -0.32302  -0.32388  -0.32411  -0.32353  -0.32206  -0.31968  -0.31640  -0.31234  -0.31640  -0.31968
  -0.32206  -0.32353  -0.32411  -0.32388  -0.32302  -0.32183  -0.32077  -0.32034  -0.31188  -0.31450
  -0.31934  -0.32413  -0.32819  -0.33124  -0.33316  -0.33390  -0.33343  -0.33181  -0.32918  -0.33181
  -0.33343  -0.33390  -0.33316  -0.33124  -0.32819  -0.32413  -0.31934  -0.31450  -0.31188  -0.31535
  -0.31908  -0.32445  -0.32994  -0.33498  -0.33920  -0.34243  -0.34447  -0.34531  -0.34493  -0.34340
  -0.34493  -0.34531  -0.34447  -0.34243  -0.33920  -0.33498  -0.32994  -0.32445  -0.31908  -0.31535
  -0.32334  -0.32511  -0.32911  -0.33403  -0.33910  -0.34376  -0.34773  -0.35072  -0.35260  -0.35333
  -0.35294  -0.35333  -0.35260  -0.35072  -0.34773  -0.34376  -0.33910  -0.33403  -0.32911  -0.32511
  -0.32334  -0.32467  -0.32574  -0.32872  -0.33298  -0.33780  -0.34277  -0.34725  -0.35100  -0.35381
  -0.35555  -0.35613  -0.35555  -0.35381  -0.35100  -0.34725  -0.34277  -0.33780  -0.33298  -0.32872
  -0.32574  -0.32467  -0.32334  -0.32511  -0.32911  -0.33403  -0.33910  -0.34376  -0.34773  -0.35072
  -0.35260  -0.35333  -0.35294  -0.35333  -0.35260  -0.35072  -0.34773  -0.34376  -0.33910  -0.33403
  -0.32911  -0.32511  -0.32334  -0.31535  -0.31908  -0.32445  -0.32994  -0.33498  -0.33920  -0.34243
  -0.34447  -0.34531  -0.34493  -0.34340  -0.34493  -0.34531  -0.34447  -0.34243  -0.33920  -0.33498
  -0.32994  -0.32445  -0.31908  -0.31535  -0.31188  -0.31450  -0.31934  -0.32413  -0.32819  -0.33124
  -0.33316  -0.33390  -0.33343  -0.33181  -0.32918  -0.33181  -0.33343  -0.33390  -0.33316  -0.33124
  -0.32819  -0.32413  -0.31934  -0.31450  -0.31188  -0.32034  -0.32077  -0.32183  -0.32302  -0.32388
  -0.32411  -0.32353  -0.32206  -0.31968  -0.31640  -0.31234  -0.31640  -0.31968  -0.32206  -0.32353
  -0.32411  -0.32388  -0.32302  -0.32183  -0.32077  -0.32034  -0.33271  -0.33224  -0.33088  -0.32868
  -0.32572  -0.32209  -0.31787  -0.31313  -0.30792  -0.30230  -0.29693  -0.30230  -0.30792  -0.31313
  -0.31787  -0.32209  -0.32572  -0.32868  -0.33088  -0.33224  -0.33271  -0.34457  -0.34372  -0.34118
  -0.33707  -0.33159  -0.32500  -0.31756  -0.30958  -0.30131  -0.29298  -0.28641  -0.29298  -0.30131
  -0.30958  -0.31756  -0.32500  -0.33159  -0.33707  -0.34118  -0.34372  -0.34457  -0.35448  -0.35340
  -0.35022  -0.34508  -0.33817  -0.32981  -0.32034  -0.31011  -0.29952  -0.28900  -0.28105  -0.28900
  -0.29952  -0.31011  -0.32034  -0.32981  -0.33817  -0.34508  -0.35022  -0.35340  -0.35448  -0.36180
  -0.36061  -0.35707  -0.35133  -0.34363  -0.33427  -0.32364  -0.31212  -0.30016  -0.28824  -0.27909
  -0.28824  -0.30016  -0.31212  -0.32364  -0.33427  -0.34363  -0.35133  -0.35707  -0.36061  -0.36180
  -0.36628  -0.36502  -0.36130  -0.35525  -0.34713  -0.33726  -0.32604  -0.31386  -0.30120  -0.28856
  -0.27862  -0.28856  -0.30120  -0.31386  -0.32604  -0.33726  -0.34713  -0.35525  -0.36130  -0.36502
  -0.36628  -0.36779  -0.36651  -0.36272  -0.35658  -0.34834  -0.33832  -0.32690  -0.31452  -0.30165
  -0.28878  -0.27857  -0.28878  -0.30165  -0.31452  -0.32690  -0.33832  -0.34834  -0.35658  -0.36272
  -0.36651  -0.36779  -0.36333  -0.36212  -0.35853  -0.35270  -0.34486  -0.33536  -0.32456  -0.31286
  -0.30071  -0.28860  -0.27925  -0.28860  -0.30071  -0.31286  -0.32456  -0.33536  -0.34486  -0.35270
  -0.35853  -0.36212  -0.36333  -0.36180  -0.36061  -0.35707  -0.35133  -0.34363  -0.33427  -0.32364
  -0.31212  -0.30016  -0.28824  -0.27909  -0.28824  -0.30016  -0.31212  -0.32364  -0.33427  -0.34363
  -0.35133  -0.35707  -0.36061  -0.36180  -0.35726  -0.35612  -0.35277  -0.34733  -0.34002  -0.33114
  -0.32105  -0.31012  -0.29878  -0.28751  -0.27894  -0.28751  -0.29878  -0.31012  -0.32105  -0.33114
  -0.34002  -0.34733  -0.35277  -0.35612  -0.35726  -0.34984  -0.34883  -0.34582  -0.34094  -0.33439
  -0.32644  -0.31741  -0.30767  -0.29757  -0.28753  -0.27988  -0.28753  -0.29757  -0.30767  -0.31741
  -0.32644  -0.33439  -0.34094  -0.34582  -0.34883  -0.34984  -0.33988  -0.33906  -0.33666  -0.33277
  -0.32756  -0.32128  -0.31417  -0.30652  -0.29858  -0.29057  -0.28396  -0.29057  -0.29858  -0.30652
  -0.31417  -0.32128  -0.32756  -0.33277  -0.33666  -0.33906  -0.33988  -0.32800  -0.32757  -0.32630
  -0.32424  -0.32145  -0.31803  -0.31402  -0.30950  -0.30452  -0.29914  -0.29354  -0.29914  -0.30452
  -0.30950  -0.31402  -0.31803  -0.32145  -0.32424  -0.32630  -0.32757  -0.32800  -0.31585  -0.31632
  -0.31746  -0.31874  -0.31970  -0.32003  -0.31955  -0.31822  -0.31599  -0.31291  -0.30957  -0.31291
  -0.31599  -0.31822  -0.31955  -0.32003  -0.31970  -0.31874  -0.31746  -0.31632  -0.31585  -0.30844
  -0.31118  -0.31599  -0.32065  -0.32457  -0.32752  -0.32937  -0.33009  -0.32967  -0.32818  -0.32612
  -0.32818  -0.32967  -0.33009  -0.32937  -0.32752  -0.32457  -0.32065  -0.31599  -0.31118  -0.30844
  -0.31442  -0.31742  -0.32225  -0.32729  -0.33196  -0.33589  -0.33888  -0.34080  -0.34156  -0.34120
  -0.33997  -0.34120  -0.34156  -0.34080  -0.33888  -0.33589  -0.33196  -0.32729  -0.32225  -0.31742
  -0.31442  -0.32245  -0.32394  -0.32745  -0.33186  -0.33647  -0.34073  -0.34440  -0.34717  -0.34891
  -0.34956  -0.34915  -0.34956  -0.34891  -0.34717  -0.34440  -0.34073  -0.33647  -0.33186  -0.32745
  -0.32394  -0.32245  -0.32372  -0.32467  -0.32730  -0.33113  -0.33554  -0.34000  -0.34411  -0.34758
  -0.35019  -0.35181  -0.35236  -0.35181  -0.35019  -0.34758  -0.34411  -0.34000  -0.33554  -0.33113
  -0.32730  -0.32467  -0.32372  -0.32245  -0.32394  -0.32745  -0.33186  -0.33647  -0.34073  -0.34440
  -0.34717  -0.34891  -0.34956  -0.34915  -0.34956  -0.34891  -0.34717  -0.34440  -0.34073  -0.33647
  -0.33186  -0.32745  -0.32394  -0.32245  -0.31442  -0.31742  -0.32225  -0.32729  -0.33196  -0.33589
  -0.33888  -0.34080  -0.34156  -0.34120  -0.33997  -0.34120  -0.34156  -0.34080  -0.33888  -0.33589
  -0.33196  -0.32729  -0.32225  -0.31742  -0.31442  -0.30844  -0.31118  -0.31599  -0.32065  -0.32457
  -0.32752  -0.32937  -0.33009  -0.32967  -0.32818  -0.32612  -0.32818  -0.32967  -0.33009  -0.32937
  -0.32752  -0.32457  -0.32065  -0.31599  -0.31118  -0.30844  -0.31585  -0.31632  -0.31746  -0.31874
  -0.31970  -0.32003  -0.31955  -0.31822  -0.31599  -0.31291  -0.30957  -0.31291  -0.31599  -0.31822
  -0.31955  -0.32003  -0.31970  -0.31874  -0.31746  -0.31632  -0.31585  -0.32800  -0.32757  -0.32630
  -0.32424  -0.32145  -0.31803  -0.31402  -0.30950  -0.30452  -0.29914  -0.29354  -0.29914  -0.30452
  -0.30950  -0.31402  -0.31803  -0.32145  -0.32424  -0.32630  -0.32757  -0.32800  -0.33988  -0.33906
  -0.33666  -0.33277  -0.32756  -0.32128  -0.31417  -0.30652  -0.29858  -0.29057  -0.28396  -0.29057
  -0.29858  -0.30652  -0.31417  -0.32128  -0.32756  -0.33277  -0.33666  -0.33906  -0.33988  -0.34984
  -0.34883  -0.34582  -0.34094  -0.33439  -0.32644  -0.31741  -0.30767  -0.29757  -0.28753  -0.27988
  -0.28753  -0.29757  -0.30767  -0.31741  -0.32644  -0.33439  -0.34094  -0.34582  -0.34883  -0.34984
  -0.35726  -0.35612  -0.35277  -0.34733  -0.34002  -0.33114  -0.32105  -0.31012  -0.29878  -0.28751
  -0.27894  -0.28751  -0.29878  -0.31012  -0.32105  -0.33114  -0.34002  -0.34733  -0.35277  -0.35612
  -0.35726  -0.36180  -0.36061  -0.35707  -0.35133  -0.34363  -0.33427  -0.32364  -0.31212  -0.30016
  -0.28824  -0.27909  -0.28824  -0.30016  -0.31212  -0.32364  -0.33427  -0.34363  -0.35133  -0.35707
  -0.36061  -0.36180  -0.36333  -0.36212  -0.35853  -0.35270  -0.34486  -0.33536  -0.32456  -0.31286
  -0.30071  -0.28860  -0.27925  -0.28860  -0.30071  -0.31286  -0.32456  -0.33536  -0.34486  -0.35270
  -0.35853  -0.36212  -0.36333  -0.35604  -0.35495  -0.35172  -0.34648  -0.33947  -0.33098  -0.32136
  -0.31099  -0.30026  -0.28959  -0.28153  -0.28959  -0.30026  -0.31099  -0.32136  -0.33098  -0.33947
  -0.34648  -0.35172  -0.35495  -0.35604  -0.35448  -0.35340  -0.35022  -0.34508  -0.33817  -0.32981
  -0.32034  -0.31011  -0.29952  -0.28900  -0.28105  -0.28900  -0.29952  -0.31011  -0.32034  -0.32981
  -0.33817  -0.34508  -0.35022  -0.35340  -0.35448  -0.34984  -0.34883  -0.34582  -0.34094  -0.33439
  -0.32644  -0.31741  -0.30767  -0.29757  -0.28753  -0.27988  -0.28753  -0.29757  -0.30767  -0.31741
  -0.32644  -0.33439  -0.34094  -0.34582  -0.34883  -0.34984  -0.34233  -0.34141  -0.33871  -0.33434
  -0.32845  -0.32130  -0.31317  -0.30441  -0.29532  -0.28623  -0.27899  -0.28623  -0.29532  -0.30441
  -0.31317  -0.32130  -0.32845  -0.33434  -0.33871  -0.34141  -0.34233  -0.33228  -0.33154  -0.32938
  -0.32588  -0.32119  -0.31551  -0.30905  -0.30209  -0.29485  -0.28749  -0.28061  -0.28749  -0.29485
  -0.30209  -0.30905  -0.31551  -0.32119  -0.32588  -0.32938  -0.33154  -0.33228  -0.32042  -0.32005
  -0.31894  -0.31712  -0.31466  -0.31160  -0.30799  -0.30393  -0.29944  -0.29463  -0.29053  -0.29463
  -0.29944  -0.30393  -0.30799  -0.31160  -0.31466  -0.31712  -0.31894  -0.32005  -0.32042  -0.30881
  -0.30932  -0.31058  -0.31199  -0.31309  -0.31358  -0.31329  -0.31219  -0.31030  -0.30778  -0.30575
  -0.30778  -0.31030  -0.31219  -0.31329  -0.31358  -0.31309  -0.31199  -0.31058  -0.30932  -0.30881
  -0.30372  -0.30666  -0.31120  -0.31549  -0.31909  -0.32180  -0.32352  -0.32421  -0.32390  -0.32272
  -0.32154  -0.32272  -0.32390  -0.32421  -0.32352  -0.32180  -0.31909  -0.31549  -0.31120  -0.30666
  -0.30372  -0.31361  -0.31561  -0.31942  -0.32360  -0.32755  -0.33091  -0.33349  -0.33514  -0.33583
  -0.33556  -0.33486  -0.33556  -0.33583  -0.33514  -0.33349  -0.33091  -0.32755  -0.32360  -0.31942
  -0.31561  -0.31361  -0.32165  -0.32273  -0.32544  -0.32899  -0.33276  -0.33633  -0.33941  -0.34176
  -0.34325  -0.34380  -0.34364  -0.34380  -0.34325  -0.34176  -0.33941  -0.33633  -0.33276  -0.32899
  -0.32544  -0.32273  -0.32165  -0.32288  -0.32362  -0.32570  -0.32876  -0.33235  -0.33604  -0.33950
  -0.34244  -0.34468  -0.34609  -0.34656  -0.34609  -0.34468  -0.34244  -0.33950  -0.33604  -0.33235
  -0.32876  -0.32570  -0.32362  -0.32288  -0.32165  -0.32273  -0.32544  -0.32899  -0.33276  -0.33633
  -0.33941  -0.34176  -0.34325  -0.34380  -0.34364  -0.34380  -0.34325  -0.34176  -0.33941  -0.33633
  -0.33276  -0.32899  -0.32544  -0.32273  -0.32165  -0.31361  -0.31561  -0.31942  -0.32360  -0.32755
  -0.33091  -0.33349  -0.33514  -0.33583  -0.33556  -0.33486  -0.33556  -0.33583  -0.33514  -0.33349
  -0.33091  -0.32755  -0.32360  -0.31942  -0.31561  -0.31361  -0.30372  -0.30666  -0.31120  -0.31549
  -0.31909  -0.32180  -0.32352  -0.32421  -0.32390  -0.32272  -0.32154  -0.32272  -0.32390  -0.32421
  -0.32352  -0.32180  -0.31909  -0.31549  -0.31120  -0.30666  -0.30372  -0.30881  -0.30932  -0.31058
  -0.31199  -0.31309  -0.31358  -0.31329  -0.31219  -0.31030  -0.30778  -0.30575  -0.30778  -0.31030
  -0.31219  -0.31329  -0.31358  -0.31309  -0.31199  -0.31058  -0.30932  -0.30881  -0.32042  -0.32005
  -0.31894  -0.31712  -0.31466  -0.31160  -0.30799  -0.30393  -0.29944  -0.29463  -0.29053  -0.29463
  -0.29944  -0.30393  -0.30799  -0.31160  -0.31466  -0.31712  -0.31894  -0.32005  -0.32042  -0.33228
  -0.33154  -0.32938  -0.32588  -0.32119  -0.31551  -0.30905  -0.30209  -0.29485  -0.28749  -0.28061
  -0.28749  -0.29485  -0.30209  -0.30905  -0.31551  -0.32119  -0.32588  -0.32938  -0.33154  -0.33228
  -0.34233  -0.34141  -0.33871  -0.33434  -0.32845  -0.32130  -0.31317  -0.30441  -0.29532  -0.28623
  -0.27899  -0.28623  -0.29532  -0.30441  -0.31317  -0.32130  -0.32845  -0.33434  -0.33871  -0.34141
  -0.34233  -0.34984  -0.34883  -0.34582  -0.34094  -0.33439  -0.32644  -0.31741  -0.30767  -0.29757
  -0.28753  -0.27988  -0.28753  -0.29757  -0.30767  -0.31741  -0.32644  -0.33439  -0.34094  -0.34582
  -0.34883  -0.34984  -0.35448  -0.35340  -0.35022  -0.34508  -0.33817  -0.32981  -0.32034  -0.31011
  -0.29952  -0.28900  -0.28105  -0.28900  -0.29952  -0.31011  -0.32034  -0.32981  -0.33817  -0.34508
  -0.35022  -0.35340  -0.35448  -0.35604  -0.35495  -0.35172  -0.34648  -0.33947  -0.33098  -0.32136
  -0.31099  -0.30026  -0.28959  -0.28153  -0.28959  -0.30026  -0.31099  -0.32136  -0.33098  -0.33947
  -0.34648  -0.35172  -0.35495  -0.35604  -0.34618  -0.34529  -0.34270  -0.33853  -0.33297  -0.32628
  -0.31874  -0.31065  -0.30228  -0.29386  -0.28729  -0.29386  -0.30228  -0.31065  -0.31874  -0.32628
  -0.33297  -0.33853  -0.34270  -0.34529  -0.34618  -0.34457  -0.34372  -0.34118  -0.33707  -0.33159
  -0.32500  -0.31756  -0.30958  -0.30131  -0.29298  -0.28641  -0.29298  -0.30131  -0.30958  -0.31756
  -0.32500  -0.33159  -0.33707  -0.34118  -0.34372  -0.34457  -0.33988  -0.33906  -0.33666  -0.33277
  -0.32756  -0.32128  -0.31417  -0.30652  -0.29858  -0.29056  -0.28396  -0.29057  -0.29858  -0.30652
  -0.31417  -0.32128  -0.32756  -0.33277  -0.33666  -0.33906  -0.33988  -0.33228  -0.33154  -0.32938
  -0.32588  -0.32119  -0.31551  -0.30905  -0.30209  -0.29485  -0.28749  -0.28061  -0.28749  -0.29485
  -0.30209  -0.30905  -0.31551  -0.32119  -0.32588  -0.32938  -0.33154  -0.33228  -0.32218  -0.32160
  -0.31987  -0.31706  -0.31329  -0.30872  -0.30351  -0.29791  -0.29207  -0.28616  -0.28154  -0.28616
  -0.29207  -0.29791  -0.30351  -0.30872  -0.31329  -0.31706  -0.31987  -0.32160  -0.32218  -0.31055
  -0.31026  -0.30940  -0.30800  -0.30608  -0.30368  -0.30084  -0.29767  -0.29427  -0.29098  -0.28920
  -0.29098  -0.29427  -0.29767  -0.30084  -0.30368  -0.30608  -0.30800  -0.30940  -0.31026  -0.31055
  -0.30037  -0.30092  -0.30223  -0.30372  -0.30493  -0.30561  -0.30565  -0.30507  -0.30397  -0.30269
  -0.30201  -0.30269  -0.30397  -0.30507  -0.30565  -0.30561  -0.30493  -0.30372  -0.30223  -0.30092
  -0.30037  -0.30003  -0.30315  -0.30670  -0.31003  -0.31288  -0.31507  -0.31650  -0.31717  -0.31716
  -0.31671  -0.31639  -0.31671  -0.31716  -0.31717  -0.31650  -0.31507  -0.31288  -0.31003  -0.30670
  -0.30315  -0.30003  -0.31411  -0.31510  -0.31741  -0.32017  -0.32292  -0.32533  -0.32720  -0.32844
  -0.32900  -0.32900  -0.32884  -0.32900  -0.32900  -0.32844  -0.32720  -0.32533  -0.32292  -0.32017
  -0.31741  -0.31510  -0.31411  -0.32205  -0.32266  -0.32430  -0.32658  -0.32910  -0.33156  -0.33372
  -0.33540  -0.33650  -0.33697  -0.33703  -0.33697  -0.33650  -0.33540  -0.33372  -0.33156  -0.32910
  -0.32658  -0.32430  -0.32266  -0.32205  -0.32323  -0.32369  -0.32501  -0.32700  -0.32939  -0.33195
  -0.33438  -0.33650  -0.33813  -0.33917  -0.33952  -0.33917  -0.33813  -0.33650  -0.33438  -0.33195
  -0.32939  -0.32700  -0.32501  -0.32369  -0.32323  -0.32205  -0.32266  -0.32430  -0.32658  -0.32910
  -0.33156  -0.33372  -0.33540  -0.33650  -0.33697  -0.33703  -0.33697  -0.33650  -0.33540  -0.33372
  -0.33156  -0.32910  -0.32658  -0.32430  -0.32266  -0.32205  -0.31411  -0.31510  -0.31741  -0.32017
  -0.32292  -0.32533  -0.32720  -0.32844  -0.32900  -0.32900  -0.32884  -0.32900  -0.32900  -0.32844
  -0.32720  -0.32533  -0.32292  -0.32017  -0.31741  -0.31510  -0.31411  -0.30003  -0.30315  -0.30670
  -0.31003  -0.31288  -0.31507  -0.31650  -0.31717  -0.31716  -0.31671  -0.31639  -0.31671  -0.31716
  -0.31717  -0.31650  -0.31507  -0.31288  -0.31003  -0.30670  -0.30315  -0.30003  -0.30037  -0.30092
  -0.30223  -0.30372  -0.30493  -0.30561  -0.30565  -0.30507  -0.30397  -0.30269  -0.30201  -0.30269
  -0.30397  -0.30507  -0.30565  -0.30561  -0.30493  -0.30372  -0.30223  -0.30092  -0.30037  -0.31055
  -0.31026  -0.30940  -0.30800  -0.30608  -0.30368  -0.30084  -0.29767  -0.29427  -0.29098  -0.28920
  -0.29098  -0.29427  -0.29767  -0.30084  -0.30368  -0.30608  -0.30800  -0.30940  -0.31026  -0.31055
  -0.32218  -0.32160  -0.31987  -0.31706  -0.31329  -0.30872  -0.30351  -0.29791  -0.29207  -0.28616
  -0.28154  -0.28616  -0.29207  -0.29791  -0.30351  -0.30872  -0.31329  -0.31706  -0.31987  -0.32160
  -0.32218  -0.33228  -0.33154  -0.32938  -0.32588  -0.32119  -0.31551  -0.30905  -0.30209  -0.29485
  -0.28749  -0.28061  -0.28749  -0.29485  -0.30209  -0.30905  -0.31551  -0.32119  -0.32588  -0.32938
  -0.33154  -0.33228  -0.33988  -0.33906  -0.33666  -0.33277  -0.32756  -0.32128  -0.31417  -0.30652
  -0.29858  -0.29056  -0.28396  -0.29057  -0.29858  -0.30652  -0.31417  -0.32128  -0.32756  -0.33277
  -0.33666  -0.33906  -0.33988  -0.34457  -0.34372  -0.34118  -0.33707  -0.33159  -0.32500  -0.31756
  -0.30958  -0.30131  -0.29298  -0.28641  -0.29298  -0.30131  -0.30958  -0.31756  -0.32500  -0.33159
  -0.33707  -0.34118  -0.34372  -0.34457  -0.34618  -0.34529  -0.34270  -0.33853  -0.33297  -0.32628
  -0.31874  -0.31065  -0.30228  -0.29386  -0.28729  -0.29386  -0.30228  -0.31065  -0.31874  -0.32628
  -0.33297  -0.33853  -0.34270  -0.34529  -0.34618  -0.33429  -0.33381  -0.33244  -0.33019  -0.32717
  -0.32347  -0.31918  -0.31438  -0.30910  -0.30341  -0.29812  -0.30341  -0.30910  -0.31438  -0.31918
  -0.32347  -0.32717  -0.33019  -0.33244  -0.33381  -0.33429  -0.33271  -0.33224  -0.33088  -0.32868
  -0.32572  -0.32209  -0.31787  -0.31313  -0.30792  -0.30230  -0.29693  -0.30230  -0.30792  -0.31313
  -0.31787  -0.32209  -0.32572  -0.32868  -0.33088  -0.33224  -0.33271  -0.32800  -0.32757  -0.32630
  -0.32424  -0.32145  -0.31803  -0.31402  -0.30950  -0.30452  -0.29914  -0.29354  -0.29914  -0.30452
  -0.30950  -0.31402  -0.31803  -0.32145  -0.32424  -0.32630  -0.32757  -0.32800  -0.32042  -0.32005
  -0.31894  -0.31712  -0.31466  -0.31160  -0.30799  -0.30393  -0.29944  -0.29463  -0.29053  -0.29463
  -0.29944  -0.30393  -0.30799  -0.31160  -0.31466  -0.31712  -0.31894  -0.32005  -0.32042  -0.31055
  -0.31026  -0.30940  -0.30800  -0.30608  -0.30368  -0.30084  -0.29767  -0.29427  -0.29098  -0.28920
  -0.29098  -0.29427  -0.29767  -0.30084  -0.30368  -0.30608  -0.30800  -0.30940  -0.31026  -0.31055
  -0.29994  -0.29982  -0.29948  -0.29891  -0.29812  -0.29710  -0.29591  -0.29462  -0.29338  -0.29242
  -0.29206  -0.29242  -0.29338  -0.29462  -0.29591  -0.29710  -0.29812  -0.29891  -0.29948  -0.29982
  -0.29994  -0.29431  -0.29472  -0.29574  -0.29694  -0.29807  -0.29898  -0.29966  -0.30012  -0.30038
  -0.30052  -0.30055  -0.30052  -0.30038  -0.30012  -0.29966  -0.29898  -0.29807  -0.29694  -0.29574
  -0.29472  -0.29431  -0.30380  -0.30439  -0.30568  -0.30711  -0.30848  -0.30966  -0.31063  -0.31136
  -0.31187  -0.31217  -0.31226  -0.31217  -0.31187  -0.31136  -0.31063  -0.30966  -0.30848  -0.30711
  -0.30568  -0.30439  -0.30380  -0.31737  -0.31760  -0.31823  -0.31910  -0.32008  -0.32101  -0.32182
  -0.32245  -0.32290  -0.32316  -0.32325  -0.32316  -0.32290  -0.32245  -0.32182  -0.32101  -0.32008
  -0.31910  -0.31823  -0.31760  -0.31737  -0.32493  -0.32511  -0.32561  -0.32636  -0.32722  -0.32812
  -0.32896  -0.32965  -0.33016  -0.33046  -0.33057  -0.33046  -0.33016  -0.32965  -0.32896  -0.32812
  -0.32722  -0.32636  -0.32561  -0.32511  -0.32493  -0.32604  -0.32621  -0.32669  -0.32741  -0.32831
  -0.32930  -0.33027  -0.33115  -0.33184  -0.33228  -0.33243  -0.33228  -0.33184  -0.33115  -0.33027
  -0.32930  -0.32831  -0.32741  -0.32669  -0.32621  -0.32604  -0.32493  -0.32511  -0.32561  -0.32636
  -0.32722  -0.32812  -0.32896  -0.32965  -0.33016  -0.33046  -0.33057  -0.33046  -0.33016  -0.32965
  -0.32896  -0.32812  -0.32722  -0.32636  -0.32561  -0.32511  -0.32493  -0.31737  -0.31760  -0.31823
  -0.31910  -0.32008  -0.32101  -0.32182  -0.32245  -0.32290  -0.32316  -0.32325  -0.32316  -0.32290
  -0.32245  -0.32182  -0.32101  -0.32008  -0.31910  -0.31823  -0.31760  -0.31737  -0.30380  -0.30439
  -0.30568  -0.30711  -0.30848  -0.30966  -0.31063  -0.31136  -0.31187  -0.31217  -0.31226  -0.31217
  -0.31187  -0.31136  -0.31063  -0.30966  -0.30848  -0.30711  -0.30568  -0.30439  -0.30380  -0.29431
  -0.29472  -0.29574  -0.29694  -0.29807  -0.29898  -0.29966  -0.30012  -0.30038  -0.30052  -0.30055
  -0.30052  -0.30038  -0.30012  -0.29966  -0.29898  -0.29807  -0.29694  -0.29574  -0.29472  -0.29431
  -0.29994  -0.29982  -0.29948  -0.29891  -0.29812  -0.29710  -0.29591  -0.29462  -0.29338  -0.29242
  -0.29206  -0.29242  -0.29338  -0.29462  -0.29591  -0.29710  -0.29812  -0.29891  -0.29948  -0.29982
  -0.29994  -0.31055  -0.31026  -0.30940  -0.30800  -0.30608  -0.30368  -0.30084  -0.29767  -0.29427
  -0.29098  -0.28920  -0.29098  -0.29427  -0.29767  -0.30084  -0.30368  -0.30608  -0.30800  -0.30940
  -0.31026  -0.31055  -0.32042  -0.32005  -0.31894  -0.31712  -0.31466  -0.31160  -0.30799  -0.30393
  -0.29944  -0.29463  -0.29053  -0.29463  -0.29944  -0.30393  -0.30799  -0.31160  -0.31466  -0.31712
  -0.31894  -0.32005  -0.32042  -0.32800  -0.32757  -0.32630  -0.32424  -0.32145  -0.31803  -0.31402
  -0.30950  -0.30452  -0.29914  -0.29354  -0.29914  -0.30452  -0.30950  -0.31402  -0.31803  -0.32145
  -0.32424  -0.32630  -0.32757  -0.32800  -0.33271  -0.33224  -0.33088  -0.32868  -0.32572  -0.32209
  -0.31787  -0.31313  -0.30792  -0.30230  -0.29693  -0.30230  -0.30792  -0.31313  -0.31787  -0.32209
  -0.32572  -0.32868  -0.33088  -0.33224  -0.33271  -0.33429  -0.33381  -0.33244  -0.33019  -0.32717
  -0.32347  -0.31918  -0.31438  -0.30910  -0.30341  -0.29812  -0.30341  -0.30910  -0.31438  -0.31918
  -0.32347  -0.32717  -0.33019  -0.33244  -0.33381  -0.33429  -0.32187  -0.32229  -0.32332  -0.32447
  -0.32531  -0.32550  -0.32488  -0.32338  -0.32095  -0.31762  -0.31367  -0.31762  -0.32095  -0.32338
  -0.32488  -0.32550  -0.32531  -0.32447  -0.32332  -0.32229  -0.32187  -0.32034  -0.32077  -0.32183
  -0.32302  -0.32388  -0.32411  -0.32353  -0.32206  -0.31968  -0.31640  -0.31234  -0.31640  -0.31968
  -0.32206  -0.32353  -0.32411  -0.32388  -0.32302  -0.32183  -0.32077  -0.32034  -0.31585  -0.31632
  -0.31746  -0.31874  -0.31970  -0.32003  -0.31955  -0.31822  -0.31598  -0.31291  -0.30957  -0.31291
  -0.31599  -0.31822  -0.31955  -0.32003  -0.31970  -0.31874  -0.31746  -0.31632  -0.31585  -0.30881
  -0.30932  -0.31058  -0.31199  -0.31309  -0.31358  -0.31329  -0.31219  -0.31030  -0.30778  -0.30575
  -0.30778  -0.31030  -0.31219  -0.31329  -0.31358  -0.31309  -0.31199  -0.31058  -0.30932  -0.30881
  -0.30037  -0.30092  -0.30223  -0.30372  -0.30493  -0.30561  -0.30565  -0.30507  -0.30397  -0.30269
  -0.30201  -0.30269  -0.30397  -0.30507  -0.30565  -0.30561  -0.30493  -0.30372  -0.30223  -0.30092
  -0.30037  -0.29431  -0.29472  -0.29574  -0.29694  -0.29807  -0.29898  -0.29966  -0.30012  -0.30038
  -0.30052  -0.30055  -0.30052  -0.30038  -0.30012  -0.29966  -0.29898  -0.29807  -0.29694  -0.29574
  -0.29472  -0.29431  -0.29820  -0.29785  -0.29775  -0.29850  -0.29942  -0.30046  -0.30147  -0.30238
  -0.30310  -0.30355  -0.30371  -0.30355  -0.30310  -0.30238  -0.30147  -0.30046  -0.29942  -0.29850
  -0.29775  -0.29785  -0.29820  -0.31239  -0.31211  -0.31134  -0.31028  -0.30964  -0.30975  -0.31015
  -0.31059  -0.31096  -0.31121  -0.31130  -0.31121  -0.31096  -0.31059  -0.31015  -0.30975  -0.30964
  -0.31028  -0.31134  -0.31211  -0.31239  -0.32415  -0.32395  -0.32338  -0.32248  -0.32143  -0.32057
  -0.32015  -0.31998  -0.31993  -0.31992  -0.31992  -0.31992  -0.31993  -0.31998  -0.32015  -0.32057
  -0.32143  -0.32248  -0.32338  -0.32395  -0.32415  -0.33100  -0.33086  -0.33045  -0.32978  -0.32893
  -0.32802  -0.32724  -0.32666  -0.32626  -0.32606  -0.32598  -0.32606  -0.32626  -0.32666  -0.32724
  -0.32802  -0.32893  -0.32978  -0.33045  -0.33086  -0.33100  -0.33200  -0.33192  -0.33163  -0.33120
  -0.33058  -0.32987  -0.32909  -0.32833  -0.32769  -0.32726  -0.32711  -0.32726  -0.32769  -0.32833
  -0.32909  -0.32987  -0.33058  -0.33120  -0.33163  -0.33192  -0.33200  -0.33100  -0.33086  -0.33045
  -0.32978  -0.32893  -0.32802  -0.32724  -0.32666  -0.32626  -0.32606  -0.32598  -0.32606  -0.32626
  -0.32666  -0.32724  -0.32802  -0.32893  -0.32978  -0.33045  -0.33086  -0.33100  -0.32415  -0.32395
  -0.32338  -0.32248  -0.32143  -0.32057  -0.32015  -0.31998  -0.31993  -0.31992  -0.31992  -0.31992
  -0.31993  -0.31998  -0.32015  -0.32057  -0.32143  -0.32248  -0.32338  -0.32395  -0.32415  -0.31239