  BEGIN_INFO
       #
       # this is a Band-XCRYSDEN-Structure-File
       # for Fermi Surface Visualisation
       #
       # Generated by the Wannier90 code http://www.wannier.org
       # On  9Sep2016 at 10:29:38 
       #
       Fermi Energy:  0.000000000000000E+000
  END_INFO
 
  BEGIN_BLOCK_BANDGRID_3D
 from_wannier_code
  BEGIN_BANDGRID_3D_fermi
          10
          21          21          21
 0.0 0.0 0.0
   1.55651539049525       0.000000000000000E+000  0.000000000000000E+000
  0.000000000000000E+000   1.55651539049525       0.000000000000000E+000
  0.000000000000000E+000  0.000000000000000E+000  0.736926797762484     
 BAND:            1
 -0.19482480E+01
 -0.19482507E+01
 -0.19482452E+01
 -0.19482136E+01
 -0.19481694E+01
 -0.19481549E+01
 -0.19481982E+01
 -0.19482824E+01
 -0.19483636E+01
 -0.19484125E+01
 -0.19484272E+01
 -0.19484125E+01
 -0.19483636E+01
 -0.19482824E+01
 -0.19481982E+01
 -0.19481549E+01
 -0.19481694E+01
 -0.19482136E+01
 -0.19482452E+01
 -0.19482507E+01
 -0.19482480E+01
 -0.19348599E+01
 -0.19348348E+01
 -0.19346571E+01
 -0.19343778E+01
 -0.19340751E+01
 -0.19338240E+01
 -0.19336539E+01
 -0.19335357E+01
 -0.19334144E+01
 -0.19332579E+01
 -0.19330775E+01
 -0.19329114E+01
 -0.19328003E+01
 -0.19327810E+01
 -0.19328892E+01
 -0.19331469E+01
 -0.19335361E+01
 -0.19339884E+01
 -0.19344085E+01
 -0.19347142E+01
 -0.19348599E+01
 -0.18979003E+01
 -0.18977020E+01
 -0.18970577E+01
 -0.18961133E+01
 -0.18950391E+01
 -0.18939784E+01
 -0.18930305E+01
 -0.18922535E+01
 -0.18916701E+01
 -0.18912761E+01
 -0.18910616E+01
 -0.18910375E+01
 -0.18912420E+01
 -0.18917162E+01
 -0.18924694E+01
 -0.18934617E+01
 -0.18946086E+01
 -0.18957876E+01
 -0.18968414E+01
 -0.18975943E+01
 -0.18979003E+01
 -0.18408824E+01
 -0.18404722E+01
 -0.18394601E+01
 -0.18379870E+01
 -0.18362050E+01
 -0.18342667E+01
 -0.18323649E+01
 -0.18307345E+01
 -0.18295735E+01
 -0.18289596E+01
 -0.18288614E+01
 -0.18292320E+01
 -0.18300691E+01
 -0.18313712E+01
 -0.18330518E+01
 -0.18349245E+01
 -0.18367767E+01
 -0.18384370E+01
 -0.18397687E+01
 -0.18406288E+01
 -0.18408824E+01
 -0.17609194E+01
 -0.17604814E+01
 -0.17595589E+01
 -0.17582268E+01
 -0.17565412E+01
 -0.17545797E+01
 -0.17525361E+01
 -0.17507252E+01
 -0.17494425E+01
 -0.17488128E+01
 -0.17487929E+01
 -0.17493114E+01
 -0.17503612E+01
 -0.17519303E+01
 -0.17538724E+01
 -0.17559010E+01
 -0.17577274E+01
 -0.17591881E+01
 -0.17602329E+01
 -0.17608282E+01
 -0.17609194E+01
 -0.16547703E+01
 -0.16546884E+01
 -0.16544779E+01
 -0.16541904E+01
 -0.16538177E+01
 -0.16533176E+01
 -0.16527234E+01
 -0.16521818E+01
 -0.16518398E+01
 -0.16517098E+01
 -0.16516881E+01
 -0.16517098E+01
 -0.16518398E+01
 -0.16521818E+01
 -0.16527234E+01
 -0.16533176E+01
 -0.16538177E+01
 -0.16541904E+01
 -0.16544779E+01
 -0.16546884E+01
 -0.16547703E+01
 -0.15282016E+01
 -0.15286451E+01
 -0.15294833E+01
 -0.15307851E+01
 -0.15325137E+01
 -0.15344912E+01
 -0.15364948E+01
 -0.15383419E+01
 -0.15398577E+01
 -0.15408097E+01
 -0.15409605E+01
 -0.15402267E+01
 -0.15387621E+01
 -0.15368599E+01
 -0.15347857E+01
 -0.15327264E+01
 -0.15308602E+01
 -0.15293939E+01
 -0.15284798E+01
 -0.15281196E+01
 -0.15282016E+01
 -0.13926498E+01
 -0.13933071E+01
 -0.13949513E+01
 -0.13976332E+01
 -0.14012472E+01
 -0.14054658E+01
 -0.14098318E+01
 -0.14138819E+01
 -0.14171822E+01
 -0.14193158E+01
 -0.14199444E+01
 -0.14189444E+01
 -0.14164798E+01
 -0.14129225E+01
 -0.14087121E+01
 -0.14042944E+01
 -0.14001353E+01
 -0.13966870E+01
 -0.13942628E+01
 -0.13929445E+01
 -0.13926498E+01
 -0.12540231E+01
 -0.12545346E+01
 -0.12564871E+01
 -0.12598630E+01
 -0.12644480E+01
 -0.12697822E+01
 -0.12752623E+01
 -0.12802929E+01
 -0.12843688E+01
 -0.12870856E+01
 -0.12881555E+01
 -0.12874590E+01
 -0.12850780E+01
 -0.12812678E+01
 -0.12764089E+01
 -0.12709917E+01
 -0.12656054E+01
 -0.12608552E+01
 -0.12572132E+01
 -0.12549182E+01
 -0.12540231E+01
 -0.11104297E+01
 -0.11108970E+01
 -0.11129359E+01
 -0.11164487E+01
 -0.11211428E+01
 -0.11265068E+01
 -0.11319006E+01
 -0.11367118E+01
 -0.11404829E+01
 -0.11429477E+01
 -0.11439837E+01
 -0.11435417E+01
 -0.11416147E+01
 -0.11382740E+01
 -0.11337465E+01
 -0.11284635E+01
 -0.11230242E+01
 -0.11180684E+01
 -0.11141252E+01
 -0.11115266E+01
 -0.11104297E+01
 -0.95964258E+00
 -0.96039527E+00
 -0.96259891E+00
 -0.96607889E+00
 -0.97051554E+00
 -0.97543455E+00
 -0.98025427E+00
 -0.98440811E+00
 -0.98749276E+00
 -0.98933955E+00
 -0.98994721E+00
 -0.98933955E+00
 -0.98749276E+00
 -0.98440811E+00
 -0.98025427E+00
 -0.97543455E+00
 -0.97051554E+00
 -0.96607889E+00
 -0.96259891E+00
 -0.96039527E+00
 -0.95964258E+00
 -0.11104297E+01
 -0.11115266E+01
 -0.11141252E+01
 -0.11180684E+01
 -0.11230242E+01
 -0.11284635E+01
 -0.11337465E+01
 -0.11382740E+01
 -0.11416147E+01
 -0.11435417E+01
 -0.11439837E+01
 -0.11429477E+01
 -0.11404829E+01
 -0.11367118E+01
 -0.11319006E+01
 -0.11265068E+01
 -0.11211428E+01
 -0.11164487E+01
 -0.11129359E+01
 -0.11108970E+01
 -0.11104297E+01
 -0.12540231E+01
 -0.12549182E+01
 -0.12572132E+01
 -0.12608552E+01
 -0.12656054E+01
 -0.12709917E+01
 -0.12764089E+01
 -0.12812678E+01
 -0.12850780E+01
 -0.12874590E+01
 -0.12881555E+01
 -0.12870856E+01
 -0.12843688E+01
 -0.12802929E+01
 -0.12752623E+01
 -0.12697822E+01
 -0.12644480E+01
 -0.12598630E+01
 -0.12564871E+01
 -0.12545346E+01
 -0.12540231E+01
 -0.13926498E+01
 -0.13929445E+01
 -0.13942628E+01
 -0.13966870E+01
 -0.14001353E+01
 -0.14042944E+01
 -0.14087121E+01
 -0.14129225E+01
 -0.14164798E+01
 -0.14189444E+01
 -0.14199444E+01
 -0.14193158E+01
 -0.14171822E+01
 -0.14138819E+01
 -0.14098318E+01
 -0.14054658E+01
 -0.14012472E+01
 -0.13976332E+01
 -0.13949513E+01
 -0.13933071E+01
 -0.13926498E+01
 -0.15282016E+01
 -0.15281196E+01
 -0.15284798E+01
 -0.15293939E+01
 -0.15308602E+01
 -0.15327264E+01
 -0.15347857E+01
 -0.15368599E+01
 -0.15387621E+01
 -0.15402267E+01
 -0.15409605E+01
 -0.15408097E+01
 -0.15398577E+01
 -0.15383419E+01
 -0.15364948E+01
 -0.15344912E+01
 -0.15325137E+01
 -0.15307851E+01
 -0.15294833E+01
 -0.15286451E+01
 -0.15282016E+01
 -0.16547703E+01
 -0.16546884E+01
 -0.16544779E+01
 -0.16541904E+01
 -0.16538177E+01
 -0.16533176E+01
 -0.16527234E+01
 -0.16521818E+01
 -0.16518398E+01
 -0.16517098E+01
 -0.16516881E+01
 -0.16517098E+01
 -0.16518398E+01
 -0.16521818E+01
 -0.16527234E+01
 -0.16533176E+01
 -0.16538177E+01
 -0.16541904E+01
 -0.16544779E+01
 -0.16546884E+01
 -0.16547703E+01
 -0.17609194E+01
 -0.17608282E+01
 -0.17602329E+01
 -0.17591881E+01
 -0.17577274E+01
 -0.17559010E+01
 -0.17538724E+01
 -0.17519303E+01
 -0.17503612E+01
 -0.17493114E+01
 -0.17487929E+01
 -0.17488128E+01
 -0.17494425E+01
 -0.17507252E+01
 -0.17525361E+01
 -0.17545797E+01
 -0.17565412E+01
 -0.17582268E+01
 -0.17595589E+01
 -0.17604814E+01
 -0.17609194E+01
 -0.18408824E+01
 -0.18406288E+01
 -0.18397687E+01
 -0.18384370E+01
 -0.18367767E+01
 -0.18349245E+01
 -0.18330518E+01
 -0.18313712E+01
 -0.18300691E+01
 -0.18292320E+01
 -0.18288614E+01
 -0.18289596E+01
 -0.18295735E+01
 -0.18307345E+01
 -0.18323649E+01
 -0.18342667E+01
 -0.18362050E+01
 -0.18379870E+01
 -0.18394601E+01
 -0.18404722E+01
 -0.18408824E+01
 -0.18979003E+01
 -0.18975943E+01
 -0.18968414E+01
 -0.18957876E+01
 -0.18946086E+01
 -0.18934617E+01
 -0.18924694E+01
 -0.18917162E+01
 -0.18912420E+01
 -0.18910375E+01
 -0.18910616E+01
 -0.18912761E+01
 -0.18916701E+01
 -0.18922535E+01
 -0.18930305E+01
 -0.18939784E+01
 -0.18950391E+01
 -0.18961133E+01
 -0.18970577E+01
 -0.18977020E+01
 -0.18979003E+01
 -0.19348599E+01
 -0.19347142E+01
 -0.19344085E+01
 -0.19339884E+01
 -0.19335361E+01
 -0.19331469E+01
 -0.19328892E+01
 -0.19327810E+01
 -0.19328003E+01
 -0.19329114E+01
 -0.19330775E+01
 -0.19332579E+01
 -0.19334144E+01
 -0.19335357E+01
 -0.19336539E+01
 -0.19338240E+01
 -0.19340751E+01
 -0.19343778E+01
 -0.19346571E+01
 -0.19348348E+01
 -0.19348599E+01
 -0.19482480E+01
 -0.19482507E+01
 -0.19482452E+01
 -0.19482136E+01
 -0.19481694E+01
 -0.19481549E+01
 -0.19481982E+01
 -0.19482824E+01
 -0.19483636E+01
 -0.19484125E+01
 -0.19484272E+01
 -0.19484125E+01
 -0.19483636E+01
 -0.19482824E+01
 -0.19481982E+01
 -0.19481549E+01
 -0.19481694E+01
 -0.19482136E+01
 -0.19482452E+01
 -0.19482507E+01
 -0.19482480E+01
 -0.19348599E+01
 -0.19348348E+01
 -0.19346571E+01
 -0.19343778E+01
 -0.19340751E+01
 -0.19338240E+01
 -0.19336539E+01
 -0.19335357E+01
 -0.19334144E+01
 -0.19332579E+01
 -0.19330775E+01
 -0.19329114E+01
 -0.19328003E+01
 -0.19327810E+01
 -0.19328892E+01
 -0.19331469E+01
 -0.19335361E+01
 -0.19339884E+01
 -0.19344085E+01
 -0.19347142E+01
 -0.19348599E+01
 -0.19230401E+01
 -0.19231144E+01
 -0.19230695E+01
 -0.19229342E+01
 -0.19227553E+01
 -0.19225748E+01
 -0.19224098E+01
 -0.19222496E+01
 -0.19220702E+01
 -0.19218524E+01
 -0.19215991E+01
 -0.19213490E+01
 -0.19211694E+01
 -0.19211214E+01
 -0.19212279E+01
 -0.19214708E+01
 -0.19218071E+01
 -0.19221836E+01
 -0.19225456E+01
 -0.19228437E+01
 -0.19230401E+01
 -0.18896366E+01
 -0.18896465E+01
 -0.18893654E+01
 -0.18888553E+01
 -0.18882048E+01
 -0.18875073E+01
 -0.18868573E+01
 -0.18863407E+01
 -0.18859984E+01
 -0.18857977E+01
 -0.18856618E+01
 -0.18855578E+01
 -0.18855457E+01
 -0.18857190E+01
 -0.18861158E+01
 -0.18866973E+01
 -0.18873876E+01
 -0.18881110E+01
 -0.18887901E+01
 -0.18893310E+01
 -0.18896366E+01
 -0.18362267E+01
 -0.18360757E+01
 -0.18353903E+01
 -0.18342534E+01
 -0.18327908E+01
 -0.18311656E+01
 -0.18295887E+01
 -0.18282886E+01
 -0.18274278E+01
 -0.18270310E+01
 -0.18270077E+01
 -0.18272649E+01
 -0.18277924E+01
 -0.18286246E+01
 -0.18297504E+01
 -0.18310797E+01
 -0.18324809E+01
 -0.18338256E+01
 -0.18349904E+01
 -0.18358368E+01
 -0.18362267E+01
 -0.17596340E+01
 -0.17595303E+01
 -0.17588619E+01
 -0.17576784E+01
 -0.17560639E+01
 -0.17541602E+01
 -0.17522049E+01
 -0.17505009E+01
 -0.17493002E+01
 -0.17486940E+01
 -0.17486183E+01
 -0.17489688E+01
 -0.17497000E+01
 -0.17508051E+01
 -0.17522303E+01
 -0.17538410E+01
 -0.17554700E+01
 -0.17569784E+01
 -0.17582548E+01
 -0.17591813E+01
 -0.17596340E+01
 -0.16570417E+01
 -0.16574350E+01
 -0.16575629E+01
 -0.16573995E+01
 -0.16569236E+01
 -0.16561554E+01
 -0.16552155E+01
 -0.16543102E+01
 -0.16536163E+01
 -0.16531706E+01
 -0.16528869E+01
 -0.16526857E+01
 -0.16525908E+01
 -0.16526911E+01
 -0.16530309E+01
 -0.16535659E+01
 -0.16542187E+01
 -0.16549402E+01
 -0.16556991E+01
 -0.16564328E+01
 -0.16570417E+01
 -0.15338888E+01
 -0.15350092E+01
 -0.15363739E+01
 -0.15378583E+01
 -0.15393184E+01
 -0.15406264E+01
 -0.15417183E+01
 -0.15425812E+01
 -0.15431696E+01
 -0.15433450E+01
 -0.15429354E+01
 -0.15418783E+01
 -0.15403050E+01
 -0.15384820E+01
 -0.15366776E+01
 -0.15350861E+01
 -0.15338442E+01
 -0.15330656E+01
 -0.15328259E+01
 -0.15331251E+01
 -0.15338888E+01
 -0.14015359E+01
 -0.14030823E+01
 -0.14054099E+01
 -0.14082924E+01
 -0.14114553E+01
 -0.14146285E+01
 -0.14175845E+01
 -0.14201180E+01
 -0.14219893E+01
 -0.14229113E+01
 -0.14226352E+01
 -0.14210876E+01
 -0.14184478E+01
 -0.14150965E+01
 -0.14114820E+01
 -0.14080077E+01
 -0.14049979E+01
 -0.14027060E+01
 -0.14013149E+01
 -0.14009222E+01
 -0.14015359E+01
 -0.12678594E+01
 -0.12693115E+01
 -0.12719225E+01
 -0.12754156E+01
 -0.12794067E+01
 -0.12834932E+01
 -0.12873205E+01
 -0.12905833E+01
 -0.12929887E+01
 -0.12942488E+01
 -0.12941408E+01
 -0.12926032E+01
 -0.12897992E+01
 -0.12860931E+01
 -0.12819471E+01
 -0.12778073E+01
 -0.12740420E+01
 -0.12709446E+01
 -0.12687588E+01
 -0.12676850E+01
 -0.12678594E+01
 -0.11356994E+01
 -0.11367802E+01
 -0.11390027E+01
 -0.11421509E+01
 -0.11458548E+01
 -0.11496779E+01
 -0.11532054E+01
 -0.11560934E+01
 -0.11580796E+01
 -0.11589848E+01
 -0.11587211E+01
 -0.11573103E+01
 -0.11549027E+01
 -0.11517763E+01
 -0.11482926E+01
 -0.11448127E+01
 -0.11416255E+01
 -0.11389399E+01
 -0.11369321E+01
 -0.11357896E+01
 -0.11356994E+01
 -0.10139843E+01
 -0.10145755E+01
 -0.10156475E+01
 -0.10171658E+01
 -0.10189973E+01
 -0.10209209E+01
 -0.10226604E+01
 -0.10239440E+01
 -0.10245830E+01
 -0.10245259E+01
 -0.10238443E+01
 -0.10226705E+01
 -0.10211531E+01
 -0.10194640E+01
 -0.10178065E+01
 -0.10163711E+01
 -0.10152648E+01
 -0.10144921E+01
 -0.10140137E+01
 -0.10138251E+01
 -0.10139843E+01
 -0.11354044E+01
 -0.11368664E+01
 -0.11393942E+01
 -0.11427355E+01
 -0.11465188E+01
 -0.11503349E+01
 -0.11537895E+01
 -0.11565259E+01
 -0.11582528E+01
 -0.11587846E+01
 -0.11580707E+01
 -0.11561975E+01
 -0.11533807E+01
 -0.11499519E+01
 -0.11463127E+01
 -0.11428464E+01
 -0.11398352E+01
 -0.11374502E+01
 -0.11358173E+01
 -0.11350829E+01
 -0.11354044E+01
 -0.12676603E+01
 -0.12693679E+01
 -0.12721976E+01
 -0.12758460E+01
 -0.12799205E+01
 -0.12840265E+01
 -0.12878143E+01
 -0.12909689E+01
 -0.12931844E+01
 -0.12941802E+01
 -0.12937682E+01
 -0.12919346E+01
 -0.12888815E+01
 -0.12849960E+01
 -0.12807553E+01
 -0.12766152E+01
 -0.12729432E+01
 -0.12700154E+01
 -0.12680492E+01
 -0.12672239E+01
 -0.12676603E+01
 -0.14017385E+01
 -0.14030251E+01
 -0.14051134E+01
 -0.14078089E+01
 -0.14108540E+01
 -0.14139812E+01
 -0.14169655E+01
 -0.14196126E+01
 -0.14216895E+01
 -0.14228925E+01
 -0.14229278E+01
 -0.14216692E+01
 -0.14192598E+01
 -0.14160676E+01
 -0.14125382E+01
 -0.14090719E+01
 -0.14059928E+01
 -0.14035651E+01
 -0.14019888E+01
 -0.14013743E+01
 -0.14017385E+01
 -0.15341992E+01
 -0.15349131E+01
 -0.15358715E+01
 -0.15370086E+01
 -0.15382234E+01
 -0.15394103E+01
 -0.15405224E+01
 -0.15415654E+01
 -0.15424949E+01
 -0.15431304E+01
 -0.15432147E+01
 -0.15425941E+01
 -0.15413472E+01
 -0.15397354E+01
 -0.15380426E+01
 -0.15364722E+01
 -0.15351638E+01
 -0.15342384E+01
 -0.15337809E+01
 -0.15337927E+01
 -0.15341992E+01
 -0.16570417E+01
 -0.16574350E+01
 -0.16575629E+01
 -0.16573995E+01
 -0.16569236E+01
 -0.16561554E+01
 -0.16552155E+01
 -0.16543102E+01
 -0.16536163E+01
 -0.16531706E+01
 -0.16528869E+01
 -0.16526857E+01
 -0.16525908E+01
 -0.16526911E+01
 -0.16530309E+01
 -0.16535659E+01
 -0.16542187E+01
 -0.16549402E+01
 -0.16556990E+01
 -0.16564328E+01
 -0.16570417E+01
 -0.17594028E+01
 -0.17596356E+01
 -0.17593788E+01
 -0.17586102E+01
 -0.17573416E+01
 -0.17556563E+01
 -0.17537493E+01
 -0.17519027E+01
 -0.17503853E+01
 -0.17493556E+01
 -0.17488518E+01
 -0.17488633E+01
 -0.17493844E+01
 -0.17503872E+01
 -0.17517669E+01
 -0.17533457E+01
 -0.17549402E+01
 -0.17564213E+01
 -0.17577100E+01
 -0.17587334E+01
 -0.17594028E+01
 -0.18361121E+01
 -0.18361435E+01
 -0.18357082E+01
 -0.18348419E+01
 -0.18336183E+01
 -0.18321551E+01
 -0.18306300E+01
 -0.18292584E+01
 -0.18282178E+01
 -0.18275803E+01
 -0.18273210E+01
 -0.18274028E+01
 -0.18278358E+01
 -0.18286356E+01
 -0.18297506E+01
 -0.18310551E+01
 -0.18324030E+01
 -0.18336772E+01
 -0.18347864E+01
 -0.18356334E+01
 -0.18361121E+01
 -0.18897260E+01
 -0.18895764E+01
 -0.18890508E+01
 -0.18882605E+01
 -0.18873519E+01
 -0.18864709E+01
 -0.18857502E+01
 -0.18852890E+01
 -0.18851094E+01
 -0.18851273E+01
 -0.18851996E+01
 -0.18852402E+01
 -0.18852925E+01
 -0.18854736E+01
 -0.18858684E+01
 -0.18864806E+01
 -0.18872524E+01
 -0.18880923E+01
 -0.18888804E+01
 -0.18894706E+01
 -0.18897260E+01
 -0.19231558E+01
 -0.19229981E+01
 -0.19225656E+01
 -0.19219687E+01
 -0.19213530E+01
 -0.19208532E+01
 -0.19205526E+01
 -0.19204626E+01
 -0.19205243E+01
 -0.19206326E+01
 -0.19206836E+01
 -0.19206326E+01
 -0.19205243E+01
 -0.19204626E+01
 -0.19205526E+01
 -0.19208532E+01
 -0.19213530E+01
 -0.19219687E+01
 -0.19225656E+01
 -0.19229981E+01
 -0.19231558E+01
 -0.19348599E+01
 -0.19348348E+01
 -0.19346571E+01
 -0.19343778E+01
 -0.19340751E+01
 -0.19338240E+01
 -0.19336539E+01
 -0.19335357E+01
 -0.19334144E+01
 -0.19332579E+01
 -0.19330775E+01
 -0.19329114E+01
 -0.19328003E+01
 -0.19327810E+01
 -0.19328892E+01
 -0.19331469E+01
 -0.19335361E+01
 -0.19339884E+01
 -0.19344085E+01
 -0.19347142E+01
 -0.19348599E+01
 -0.18979003E+01
 -0.18977020E+01
 -0.18970578E+01
 -0.18961133E+01
 -0.18950391E+01
 -0.18939784E+01
 -0.18930305E+01
 -0.18922535E+01
 -0.18916701E+01
 -0.18912761E+01
 -0.18910616E+01
 -0.18910375E+01
 -0.18912420E+01
 -0.18917162E+01
 -0.18924694E+01
 -0.18934617E+01
 -0.18946086E+01
 -0.18957876E+01
 -0.18968414E+01
 -0.18975943E+01
 -0.18979003E+01
 -0.18896366E+01
 -0.18896465E+01
 -0.18893654E+01
 -0.18888553E+01
 -0.18882048E+01
 -0.18875073E+01
 -0.18868573E+01
 -0.18863407E+01
 -0.18859984E+01
 -0.18857977E+01
 -0.18856618E+01
 -0.18855578E+01
 -0.18855457E+01
 -0.18857190E+01
 -0.18861158E+01
 -0.18866973E+01
 -0.18873876E+01
 -0.18881110E+01
 -0.18887901E+01
 -0.18893310E+01
 -0.18896366E+01
 -0.18643069E+01
 -0.18643809E+01
 -0.18643229E+01
 -0.18641230E+01
 -0.18637994E+01
 -0.18634084E+01
 -0.18630415E+01
 -0.18627925E+01
 -0.18626980E+01
 -0.18627000E+01
 -0.18626842E+01
 -0.18625916E+01
 -0.18624839E+01
 -0.18624740E+01
 -0.18626196E+01
 -0.18628939E+01
 -0.18632287E+01
 -0.18635653E+01
 -0.18638716E+01
 -0.18641270E+01
 -0.18643069E+01
 -0.18197290E+01
 -0.18196733E+01
 -0.18193978E+01
 -0.18188930E+01
 -0.18181948E+01
 -0.18173917E+01
 -0.18165938E+01
 -0.18158954E+01
 -0.18153653E+01
 -0.18150523E+01
 -0.18149781E+01
 -0.18151332E+01
 -0.18154857E+01
 -0.18159942E+01
 -0.18166197E+01
 -0.18173249E+01
 -0.18180520E+01
 -0.18187178E+01
 -0.18192429E+01
 -0.18195834E+01
 -0.18197290E+01
 -0.17524040E+01
 -0.17523169E+01
 -0.17518656E+01
 -0.17510599E+01
 -0.17499594E+01
 -0.17486757E+01
 -0.17473424E+01
 -0.17460921E+01
 -0.17450620E+01
 -0.17443950E+01
 -0.17441960E+01
 -0.17444767E+01
 -0.17451498E+01
 -0.17460853E+01
 -0.17471767E+01
 -0.17483539E+01
 -0.17495448E+01
 -0.17506447E+01
 -0.17515377E+01
 -0.17521381E+01
 -0.17524040E+01
 -0.16605016E+01
 -0.16606807E+01
 -0.16606150E+01
 -0.16602537E+01
 -0.16595813E+01
 -0.16586556E+01
 -0.16576149E+01
 -0.16566354E+01
 -0.16558610E+01
 -0.16553538E+01
 -0.16551039E+01
 -0.16550834E+01
 -0.16552892E+01
 -0.16557333E+01
 -0.16563998E+01
 -0.16572185E+01
 -0.16580829E+01
 -0.16588928E+01
 -0.16595839E+01
 -0.16601261E+01
 -0.16605016E+01
 -0.15482621E+01
 -0.15488504E+01
 -0.15495634E+01
 -0.15501859E+01
 -0.15505456E+01
 -0.15506241E+01
 -0.15505607E+01
 -0.15505291E+01
 -0.15505792E+01
 -0.15505859E+01
 -0.15503623E+01
 -0.15498400E+01
 -0.15491481E+01
 -0.15485217E+01
 -0.15481286E+01
 -0.15479682E+01
 -0.15479189E+01
 -0.15478734E+01
 -0.15478394E+01
 -0.15479297E+01
 -0.15482621E+01
 -0.14259681E+01
 -0.14268256E+01
 -0.14281379E+01
 -0.14295162E+01
 -0.14306491E+01
 -0.14314834E+01
 -0.14321788E+01
 -0.14328908E+01
 -0.14335747E+01
 -0.14339797E+01
 -0.14338264E+01
 -0.14330194E+01
 -0.14317356E+01
 -0.14303288E+01
 -0.14291173E+01
 -0.14282053E+01
 -0.14274799E+01
 -0.14267874E+01
 -0.14261410E+01
 -0.14257723E+01
 -0.14259681E+01
 -0.13051166E+01
 -0.13059560E+01
 -0.13073022E+01
 -0.13087256E+01
 -0.13098827E+01
 -0.13107229E+01
 -0.13114261E+01
 -0.13121561E+01
 -0.13128648E+01
 -0.13132982E+01
 -0.13131702E+01
 -0.13123635E+01
 -0.13110313E+01
 -0.13095381E+01
 -0.13082577E+01
 -0.13073487E+01
 -0.13066923E+01
 -0.13060673E+01
 -0.13054223E+01
 -0.13049897E+01
 -0.13051166E+01
 -0.11957178E+01
 -0.11961847E+01
 -0.11967906E+01
 -0.11972818E+01
 -0.11974648E+01
 -0.11973563E+01
 -0.11971447E+01
 -0.11970142E+01
 -0.11969878E+01
 -0.11969151E+01
 -0.11965993E+01
 -0.11959640E+01
 -0.11951441E+01
 -0.11944358E+01
 -0.11941211E+01
 -0.11942761E+01
 -0.11947150E+01
 -0.11951377E+01
 -0.11953703E+01
 -0.11954899E+01
 -0.11957178E+01
 -0.11080053E+01
 -0.11077915E+01
 -0.11068952E+01
 -0.11053822E+01
 -0.11033771E+01
 -0.11010832E+01
 -0.10987541E+01
 -0.10966314E+01
 -0.10948906E+01
 -0.10936284E+01
 -0.10928990E+01
 -0.10927641E+01
 -0.10933083E+01
 -0.10945955E+01
 -0.10965899E+01
 -0.10990991E+01
 -0.11017889E+01
 -0.11042737E+01
 -0.11062346E+01
 -0.11074939E+01
 -0.11080053E+01
 -0.11955152E+01
 -0.11959099E+01
 -0.11964288E+01
 -0.11968310E+01
 -0.11969578E+01
 -0.11968650E+01
 -0.11967443E+01
 -0.11967253E+01
 -0.11967499E+01
 -0.11966212E+01
 -0.11961693E+01
 -0.11953980E+01
 -0.11945196E+01
 -0.11938583E+01
 -0.11936683E+01
 -0.11939700E+01
 -0.11945273E+01
 -0.11950140E+01
 -0.11952554E+01
 -0.11953432E+01
 -0.11955152E+01
 -0.13049851E+01
 -0.13058186E+01
 -0.13071517E+01
 -0.13085569E+01
 -0.13097051E+01
 -0.13105636E+01
 -0.13113122E+01
 -0.13120854E+01
 -0.13127921E+01
 -0.13131564E+01
 -0.13129145E+01
 -0.13120019E+01
 -0.13106174E+01
 -0.13091374E+01
 -0.13079155E+01
 -0.13070805E+01
 -0.13064899E+01
 -0.13059097E+01
 -0.13052865E+01
 -0.13048596E+01
 -0.13049851E+01
 -0.14261007E+01
 -0.14269241E+01
 -0.14282068E+01
 -0.14295654E+01
 -0.14306822E+01
 -0.14314919E+01
 -0.14321546E+01
 -0.14328486E+01
 -0.14335631E+01
 -0.14340611E+01
 -0.14340371E+01
 -0.14333435E+01
 -0.14321167E+01
 -0.14307067E+01
 -0.14294551E+01
 -0.14284930E+01
 -0.14277229E+01
 -0.14269969E+01
 -0.14263260E+01
 -0.14259341E+01
 -0.14261007E+01
 -0.15484666E+01
 -0.15489431E+01
 -0.15495444E+01
 -0.15500782E+01
 -0.15503755E+01
 -0.15504074E+01
 -0.15503127E+01
 -0.15502899E+01
 -0.15504249E+01
 -0.15506005E+01
 -0.15505845E+01
 -0.15502324E+01
 -0.15496229E+01
 -0.15489980E+01
 -0.15485686E+01
 -0.15483719E+01
 -0.15482991E+01
 -0.15482372E+01
 -0.15481792E+01
 -0.15482197E+01
 -0.15484666E+01
 -0.16605016E+01
 -0.16606807E+01
 -0.16606150E+01
 -0.16602537E+01
 -0.16595813E+01
 -0.16586556E+01
 -0.16576149E+01
 -0.16566354E+01
 -0.16558610E+01
 -0.16553538E+01
 -0.16551039E+01
 -0.16550834E+01
 -0.16552892E+01
 -0.16557333E+01
 -0.16563998E+01
 -0.16572185E+01
 -0.16580829E+01
 -0.16588928E+01
 -0.16595839E+01
 -0.16601261E+01
 -0.16605016E+01
 -0.17522459E+01
 -0.17523613E+01
 -0.17521318E+01
 -0.17515179E+01
 -0.17505487E+01
 -0.17493271E+01
 -0.17479884E+01
 -0.17466660E+01
 -0.17455007E+01
 -0.17446573E+01
 -0.17442871E+01
 -0.17444504E+01
 -0.17450753E+01
 -0.17460022E+01
 -0.17470771E+01
 -0.17482023E+01
 -0.17493127E+01
 -0.17503361E+01
 -0.17511974E+01
 -0.17518445E+01
 -0.17522459E+01
 -0.18196484E+01
 -0.18197376E+01
 -0.18196253E+01
 -0.18192646E+01
 -0.18186650E+01
 -0.18179047E+01
 -0.18170950E+01
 -0.18163375E+01
 -0.18157142E+01
 -0.18152956E+01
 -0.18151312E+01
 -0.18152320E+01
 -0.18155657E+01
 -0.18160674E+01
 -0.18166690E+01
 -0.18173189E+01
 -0.18179681E+01
 -0.18185596E+01
 -0.18190465E+01
 -0.18194104E+01
 -0.18196484E+01
 -0.18643725E+01
 -0.18642887E+01
 -0.18640495E+01
 -0.18636876E+01
 -0.18632533E+01
 -0.18628169E+01
 -0.18624687E+01
 -0.18622891E+01
 -0.18622928E+01
 -0.18623936E+01
 -0.18624510E+01
 -0.18623936E+01
 -0.18622928E+01
 -0.18622891E+01
 -0.18624687E+01
 -0.18628169E+01
 -0.18632533E+01
 -0.18636876E+01
 -0.18640495E+01
 -0.18642887E+01
 -0.18643725E+01
 -0.18897260E+01
 -0.18894706E+01
 -0.18888804E+01
 -0.18880923E+01
 -0.18872524E+01
 -0.18864806E+01
 -0.18858684E+01
 -0.18854736E+01
 -0.18852925E+01
 -0.18852402E+01
 -0.18851996E+01
 -0.18851273E+01
 -0.18851094E+01
 -0.18852890E+01
 -0.18857502E+01
 -0.18864709E+01
 -0.18873519E+01
 -0.18882605E+01
 -0.18890508E+01
 -0.18895764E+01
 -0.18897260E+01
 -0.18979003E+01
 -0.18977020E+01
 -0.18970578E+01
 -0.18961133E+01
 -0.18950391E+01
 -0.18939784E+01
 -0.18930305E+01
 -0.18922535E+01
 -0.18916701E+01
 -0.18912761E+01
 -0.18910616E+01
 -0.18910375E+01
 -0.18912420E+01
 -0.18917162E+01
 -0.18924694E+01
 -0.18934617E+01
 -0.18946086E+01
 -0.18957876E+01
 -0.18968414E+01
 -0.18975943E+01
 -0.18979003E+01
 -0.18408824E+01
 -0.18404722E+01
 -0.18394601E+01
 -0.18379869E+01
 -0.18362050E+01
 -0.18342667E+01
 -0.18323649E+01
 -0.18307345E+01
 -0.18295735E+01
 -0.18289596E+01
 -0.18288614E+01
 -0.18292320E+01
 -0.18300691E+01
 -0.18313712E+01
 -0.18330518E+01
 -0.18349245E+01
 -0.18367767E+01
 -0.18384370E+01
 -0.18397687E+01
 -0.18406288E+01
 -0.18408824E+01
 -0.18362267E+01
 -0.18360757E+01
 -0.18353903E+01
 -0.18342534E+01
 -0.18327908E+01
 -0.18311656E+01
 -0.18295887E+01
 -0.18282886E+01
 -0.18274278E+01
 -0.18270310E+01
 -0.18270077E+01
 -0.18272649E+01
 -0.18277924E+01
 -0.18286246E+01
 -0.18297504E+01
 -0.18310797E+01
 -0.18324809E+01
 -0.18338256E+01
 -0.18349904E+01
 -0.18358368E+01
 -0.18362267E+01
 -0.18197290E+01
 -0.18196733E+01
 -0.18193978E+01
 -0.18188930E+01
 -0.18181948E+01
 -0.18173917E+01
 -0.18165938E+01
 -0.18158954E+01
 -0.18153653E+01
 -0.18150523E+01
 -0.18149781E+01
 -0.18151332E+01
 -0.18154857E+01
 -0.18159942E+01
 -0.18166197E+01
 -0.18173249E+01
 -0.18180520E+01
 -0.18187178E+01
 -0.18192429E+01
 -0.18195834E+01
 -0.18197290E+01
 -0.17865445E+01
 -0.17863967E+01
 -0.17862844E+01
 -0.17861423E+01
 -0.17859145E+01
 -0.17855665E+01
 -0.17850479E+01
 -0.17843135E+01
 -0.17834364E+01
 -0.17826766E+01
 -0.17823641E+01
 -0.17826633E+01
 -0.17834502E+01
 -0.17844237E+01
 -0.17853245E+01
 -0.17860405E+01
 -0.17865476E+01
 -0.17868249E+01
 -0.17868650E+01
 -0.17867309E+01
 -0.17865445E+01
 -0.17326975E+01
 -0.17325171E+01
 -0.17324431E+01
 -0.17324053E+01
 -0.17322908E+01
 -0.17319663E+01
 -0.17313029E+01
 -0.17302591E+01
 -0.17290041E+01
 -0.17279403E+01
 -0.17275190E+01
 -0.17279542E+01
 -0.17290801E+01
 -0.17304792E+01
 -0.17317482E+01
 -0.17326671E+01
 -0.17331890E+01
 -0.17333525E+01
 -0.17332388E+01
 -0.17329722E+01
 -0.17326975E+01
 -0.16568569E+01
 -0.16566824E+01
 -0.16566143E+01
 -0.16565851E+01
 -0.16564685E+01
 -0.16561413E+01
 -0.16555700E+01
 -0.16548492E+01
 -0.16541614E+01
 -0.16536963E+01
 -0.16535915E+01
 -0.16539069E+01
 -0.16546108E+01
 -0.16555651E+01
 -0.16565419E+01
 -0.16572976E+01
 -0.16576798E+01
 -0.16576904E+01
 -0.16574552E+01
 -0.16571360E+01
 -0.16568569E+01
 -0.15620469E+01
 -0.15617302E+01
 -0.15614993E+01
 -0.15612565E+01
 -0.15609022E+01
 -0.15604494E+01
 -0.15600799E+01
 -0.15600311E+01
 -0.15603728E+01
 -0.15609016E+01
 -0.15613035E+01
 -0.15614460E+01
 -0.15614959E+01
 -0.15617318E+01
 -0.15622480E+01
 -0.15628534E+01
 -0.15632437E+01
 -0.15632502E+01
 -0.15629309E+01
 -0.15624729E+01
 -0.15620469E+01
 -0.14569435E+01
 -0.14564712E+01
 -0.14559343E+01
 -0.14551888E+01
 -0.14541847E+01
 -0.14531108E+01
 -0.14523527E+01
 -0.14522424E+01
 -0.14527810E+01
 -0.14535907E+01
 -0.14541861E+01
 -0.14543547E+01
 -0.14543119E+01
 -0.14544873E+01
 -0.14551420E+01
 -0.14561530E+01
 -0.14571232E+01
 -0.14576849E+01
 -0.14577288E+01
 -0.14574043E+01
 -0.14569435E+01
 -0.13541325E+01
 -0.13537157E+01
 -0.13528993E+01
 -0.13515509E+01
 -0.13496945E+01
 -0.13476359E+01
 -0.13458623E+01
 -0.13447766E+01
 -0.13444651E+01
 -0.13446802E+01
 -0.13450529E+01
 -0.13453785E+01
 -0.13457588E+01
 -0.13464886E+01
 -0.13477817E+01
 -0.13495538E+01
 -0.13514286E+01
 -0.13529593E+01
 -0.13538847E+01
 -0.13542211E+01
 -0.13541325E+01
 -0.12652350E+01
 -0.12648337E+01
 -0.12635920E+01
 -0.12615169E+01
 -0.12587632E+01
 -0.12556796E+01
 -0.12527346E+01
 -0.12503606E+01
 -0.12488100E+01
 -0.12481061E+01
 -0.12481191E+01
 -0.12487116E+01
 -0.12498406E+01
 -0.12515373E+01
 -0.12537943E+01
 -0.12564601E+01
 -0.12592272E+01
 -0.12617236E+01
 -0.12636454E+01
 -0.12648318E+01
 -0.12652350E+01
 -0.11956191E+01
 -0.11948807E+01
 -0.11928641E+01
 -0.11898028E+01
 -0.11860246E+01
 -0.11818887E+01
 -0.11777721E+01
 -0.11740786E+01
 -0.11712118E+01
 -0.11695003E+01
 -0.11691286E+01
 -0.11701145E+01
 -0.11723198E+01
 -0.11754698E+01
 -0.11792005E+01
 -0.11831383E+01
 -0.11869646E+01
 -0.11904077E+01
 -0.11931902E+01
 -0.11950138E+01
 -0.11956191E+01
 -0.12654536E+01
 -0.12646749E+01
 -0.12630868E+01
 -0.12607374E+01
 -0.12578397E+01
 -0.12547882E+01
 -0.12520515E+01
 -0.12500005E+01
 -0.12487883E+01
 -0.12483598E+01
 -0.12485784E+01
 -0.12493680E+01
 -0.12507534E+01
 -0.12527667E+01
 -0.12553147E+01
 -0.12581293E+01
 -0.12608365E+01
 -0.12630854E+01
 -0.12646492E+01
 -0.12654418E+01
 -0.12654536E+01
 -0.13542729E+01
 -0.13536601E+01
 -0.13526580E+01
 -0.13511560E+01
 -0.13492112E+01
 -0.13471575E+01
 -0.13454882E+01
 -0.13445789E+01
 -0.13444631E+01
 -0.13448444E+01
 -0.13453414E+01
 -0.13457792E+01
 -0.13462979E+01
 -0.13471947E+01
 -0.13486370E+01
 -0.13504776E+01
 -0.13523077E+01
 -0.13536970E+01
 -0.13544299E+01
 -0.13545619E+01
 -0.13542729E+01
 -0.14568021E+01
 -0.14564580E+01
 -0.14560542E+01
 -0.14554312E+01
 -0.14545099E+01
 -0.14534503E+01
 -0.14526250E+01
 -0.14523812E+01
 -0.14527620E+01
 -0.14534355E+01
 -0.14539343E+01
 -0.14540251E+01
 -0.14538890E+01
 -0.14539489E+01
 -0.14545005E+01
 -0.14554695E+01
 -0.14564817E+01
 -0.14571513E+01
 -0.14573296E+01
 -0.14571373E+01
 -0.14568021E+01
 -0.15618258E+01
 -0.15615944E+01
 -0.15614869E+01
 -0.15613916E+01
 -0.15611683E+01
 -0.15607814E+01
 -0.15603783E+01
 -0.15601986E+01
 -0.15603582E+01
 -0.15607198E+01
 -0.15610083E+01
 -0.15610770E+01
 -0.15610511E+01
 -0.15611932E+01
 -0.15616291E+01
 -0.15622157E+01
 -0.15626656E+01
 -0.15627794E+01
 -0.15625658E+01
 -0.15621864E+01
 -0.15618258E+01
 -0.16568569E+01
 -0.16566824E+01
 -0.16566143E+01
 -0.16565851E+01
 -0.16564685E+01
 -0.16561413E+01
 -0.16555700E+01
 -0.16548492E+01
 -0.16541614E+01
 -0.16536963E+01
 -0.16535915E+01
 -0.16539069E+01
 -0.16546108E+01
 -0.16555651E+01
 -0.16565419E+01
 -0.16572976E+01
 -0.16576798E+01
 -0.16576904E+01
 -0.16574552E+01
 -0.16571360E+01
 -0.16568569E+01
 -0.17328773E+01
 -0.17328427E+01
 -0.17328121E+01
 -0.17327089E+01
 -0.17324513E+01
 -0.17319624E+01
 -0.17311758E+01
 -0.17300916E+01
 -0.17288762E+01
 -0.17278859E+01
 -0.17275163E+01
 -0.17279511E+01
 -0.17290283E+01
 -0.17303487E+01
 -0.17315261E+01
 -0.17323604E+01
 -0.17328353E+01
 -0.17330251E+01
 -0.17330291E+01
 -0.17329508E+01
 -0.17328773E+01
 -0.17866396E+01
 -0.17866366E+01
 -0.17865887E+01
 -0.17864217E+01
 -0.17860975E+01
 -0.17856197E+01
 -0.17849845E+01
 -0.17841834E+01
 -0.17832982E+01
 -0.17825658E+01
 -0.17822772E+01
 -0.17825658E+01
 -0.17832982E+01
 -0.17841834E+01
 -0.17849845E+01
 -0.17856197E+01
 -0.17860975E+01
 -0.17864217E+01
 -0.17865887E+01
 -0.17866366E+01
 -0.17866396E+01
 -0.18196484E+01
 -0.18194104E+01
 -0.18190465E+01
 -0.18185596E+01
 -0.18179681E+01
 -0.18173189E+01
 -0.18166690E+01
 -0.18160674E+01
 -0.18155657E+01
 -0.18152320E+01
 -0.18151312E+01
 -0.18152956E+01
 -0.18157142E+01
 -0.18163375E+01
 -0.18170950E+01
 -0.18179047E+01
 -0.18186650E+01
 -0.18192646E+01
 -0.18196253E+01
 -0.18197376E+01
 -0.18196484E+01
 -0.18361121E+01
 -0.18356334E+01
 -0.18347864E+01